/*--------------------------------*- C++ -*----------------------------------*\
| =========                 |                                                 |
| \\      /  F ield         | OpenFOAM: The Open Source CFD Toolbox           |
|  \\    /   O peration     | Version:  v2112                                 |
|   \\  /    A nd           | Website:  www.openfoam.com                      |
|    \\/     M anipulation  |                                                 |
\*---------------------------------------------------------------------------*/
FoamFile
{
    version     2.0;
    format      ascii;
    class       volScalarField;
    object      p?rgh;
}
// * * * * * * * * * * * * * * * * * * * * * * * * * * * * * * * * * * * * * //

dimensions      [1 -1 -2 0 0 0 0];

internalField   uniform 0;

boundaryField
{
    #includeEtc "caseDicts/setConstraintTypes"

    "(fixedWalls|fixedWalls2)"
    {
        type            fixedFluxPressure;
    }

    atmosphere1
    {
        type            totalPressure;
        p0              uniform 0;
        U               U;
        phi             phi;
        rho             rho;
        psi             none;
        gamma           1;
        value           uniform 0;
    }

    atmosphere2
    {
        type            totalPressure;
        p0              uniform 0;
        U               U;
        phi             phi;
        rho             rho;
        psi             none;
        gamma           1;
        value           uniform 0;
    }

    outlet
    {
        type            prghPressure;
        rho             rho;
        p               uniform 0;
        value           uniform 0; // optional initial value
    }

    symmetry
    {
        type            fixedFluxPressure;
    }
}


// ************************************************************************* //
